9
Properties=species:S:1:pos:R:3:REF_forces:R:3 -97191.74690489889=T REF_energy=-4214.66865017095 pbc="F F F"
C       -0.48250304       0.07499929      -0.33908323       3.07537329      -1.85701407      -1.90743045
C        0.44740032       1.19077186       0.02288900      -1.90077344       2.17702990       1.77076862
O        0.05829092      -1.13426352       0.28420604       0.74008935      -0.17543094      -0.33914370
H       -1.47680931      -0.01282425      -0.06804973      -2.49022599       1.34864708       0.66287739
H       -0.42000426       0.12627738      -1.51096228      -0.25771220      -0.96539423       1.40477094
H        1.50782120       1.04700330       0.02467546       0.80624849      -0.68167823      -1.11973716
H        0.08052281       2.04855613      -0.56566036       0.73483167       0.11229912      -0.26267669
H        0.36533225       1.59623900       1.05526196      -0.57564926      -0.45614539       0.11239324
H       -0.56483790      -1.88521065       0.32122633      -0.13218191       0.49768676      -0.32182219
9
Properties=species:S:1:pos:R:3:REF_forces:R:3 -97193.78057064598=T REF_energy=-4214.75695421663 pbc="F F F"
C       -0.24782548      -0.01930793      -0.53278310      -2.39517521       1.55265948      -0.13796878
C        0.14387173       1.27910739       0.24246119       2.17442325      -6.06795573       1.72060226
O        0.09836823      -1.08873616       0.28142533       1.44200840      -0.50926102       0.97981787
H       -1.36018041      -0.03683346      -0.60209740       0.03084141       0.15842114      -0.42089780
H        0.12505296       0.03764668      -1.58145737       0.37693726      -0.45765247       0.35042708
H        1.22953127       1.01989709       0.30895971      -0.08613394       0.94733536       0.27621442
H        0.01930925       2.07304145      -0.34890175      -0.90689443       3.72134239      -1.76335687
H       -0.21686867       1.13202790       1.27822207      -0.34317335       0.93038306      -0.44381066
H       -0.12054654      -1.95725186      -0.06239148      -0.29283338      -0.27527221      -0.56102752
9
Properties=species:S:1:pos:R:3:REF_forces:R:3 -97196.12113852012=T REF_energy=-4214.85853316069 pbc="F F F"
C       -0.19872837       0.00625685      -0.59339655       2.06442914      -0.38601777       2.97123748
C        0.12024389       1.27427081       0.19759616       0.89312207       0.18955308       0.57618210
O        0.06430125      -1.13984193       0.36262698      -1.04868827       0.60395704      -1.42891725
H       -1.18109265      -0.06534118      -0.98440676      -1.21585581       0.02051340      -0.54996739
H        0.58408690      -0.02844963      -1.34989582      -0.08369584      -0.25618860      -0.65540966
H        1.11219919       1.15027083       0.65647375       0.34615123      -0.59268412      -0.13735486
H        0.40127716       2.02506853      -0.56748612      -0.93868997       0.62602078       0.54317894
H       -0.42110111       1.55392808       1.16250524      -0.38349354      -0.04643583      -1.71295754
H       -0.58180806      -1.80272742       0.04309077       0.36672097      -0.15871798       0.39400817
9
Properties=species:S:1:pos:R:3:REF_forces:R:3 -97192.57865229018=T REF_energy=-4214.70469865021 pbc="F F F"
C       -0.45297585       0.06981109      -0.38275777      -1.08040797      -0.59929033       2.86503422
C        0.44083871       1.21427266       0.00284084       1.12963420      -0.02819984       1.59380936
O        0.04939729      -1.13750065       0.33807699      -1.57171244      -1.22952328      -2.09884876
H       -1.52149119       0.15331692       0.10846932       1.47286758       0.57765223      -1.45808487
H       -0.43954586      -0.01109002      -1.43732548      -0.41740172      -0.73517297      -1.53052960
H        1.59325912       1.07639001      -0.32574482      -2.58537432       0.33100621       0.80978356
H        0.02121272       2.19375934      -0.26624017       0.22717391      -0.06205654      -0.60539192
H        0.27298389       1.22310564       1.12568453       1.15572940       0.14537599      -0.68479964
H       -0.56688181      -1.88227125      -0.04414015       1.66949136       1.60020851       1.10902766
9
Properties=species:S:1:pos:R:3:REF_forces:R:3 -97188.60494466397=T REF_energy=-4214.53247266359 pbc="F F F"
C       -0.25755182      -0.01966096      -0.60685068       0.58494115       1.46617479       2.72521564
C        0.16303934       1.26568972       0.21020018       0.75347202       0.51044003      -0.18256457
O        0.09740044      -1.12733982       0.36510944       0.23660506       1.34778498      -2.11364705
H       -1.33944446      -0.24145558      -0.80784573       0.48532927       1.10806586       0.07414323
H        0.26684143       0.18618936      -1.54989820       0.47875908      -1.40572701      -0.32651577
H        1.21287538       1.29828175       0.67280642      -0.74120912      -0.96039715      -1.17558919
H        0.15017320       2.23965818      -0.33844667      -0.47797438      -0.62963361       0.00368736
H       -0.38004771       1.35744851       1.12285848      -1.20545742       0.21327351       0.74944397
H       -0.33124078      -1.79473165      -0.16846840      -0.11446566      -1.64998140       0.24582638
9
Properties=species:S:1:pos:R:3:REF_forces:R:3 -97195.13018339482=T REF_energy=-4214.81555839969 pbc="F F F"
C       -0.45816528       0.00172535      -0.34128099       1.41512985       1.48987316      -2.24539654
C        0.40644036       1.23883421       0.02903394      -0.85648618      -0.20802248      -2.72652033
O        0.02339222      -1.10849334       0.36106284      -0.06546698      -1.02870370      -0.25070626
H       -1.54364677       0.06189182      -0.35048517      -0.60132369       0.59205494       0.86002217
H       -0.29363275      -0.14341037      -1.49743655       0.08462252       0.16477276       1.46947716
H        1.45963181       1.02192771      -0.14268517       0.29903170      -0.37122874      -0.77441628
H        0.09974285       2.07586131      -0.65934861       0.32187897      -0.29375629       0.82772084
H        0.48649375       1.51470785       1.02936313      -0.92530023       0.68702734       2.23657717
H        0.03546734      -1.71957331      -0.38992726       0.32791403      -1.03201700       0.60324206
9
Properties=species:S:1:pos:R:3:REF_forces:R:3 -97192.83175485127=T REF_energy=-4214.71580726869 pbc="F F F"
C       -0.41666252       0.05488267      -0.32313826      -2.05134472      -0.02633749       0.53130229
C        0.43293888       1.23828347       0.01439887      -0.03071800      -1.64630853       2.59152935
O       -0.00145484      -1.11950065       0.31085292       0.64086152      -2.61960054      -0.18475074
H       -1.51147564       0.05064556      -0.09203463       0.24080528       1.15853109      -0.50573760
H       -0.19840171       0.03309509      -1.34213363      -0.53751473      -0.79222304      -2.62669385
H        1.39491905       0.84333957      -0.29867599       0.74801854       0.85099386      -0.45581885
H        0.02946219       2.12809294      -0.44672092       0.29608298       0.52882464      -0.02858369
H        0.50583412       1.20881457       1.12966685      -0.07762412       1.01539721      -0.36134535
H       -0.39218437      -1.90472433      -0.20541855       0.77143325       1.53072279       1.04009844
9
Properties=species:S:1:pos:R:3:REF_forces:R:3 -97195.14837086227=T REF_energy=-4214.81617446017 pbc="F F F"
C       -0.48499592      -0.00046755      -0.33378112       1.50911414       3.28434623      -1.65295583
C        0.47134412       1.21158054       0.02966317      -1.25250754       1.19862667       2.33991115
O        0.03868485      -1.10274253       0.28740912      -0.98750693      -2.60357011       0.17609127
H       -1.57339803       0.07687987      -0.22131344      -0.12215323       0.63878817       0.65240522
H       -0.35312857       0.07682374      -1.45320175      -0.07144120      -0.98113692       0.17966488
H        1.54168427       0.92852139      -0.02023609      -0.44292030      -0.03187403      -0.68285308
H        0.20063421       2.15125494      -0.51227638       0.44240321      -0.74480718      -0.31435250
H        0.41263749       1.62059131       1.11967482      -0.30726606      -1.03407263      -1.14555043
H       -0.68080133      -1.78306325       0.14909867       1.23227790       0.27369979       0.44763932
9
Properties=species:S:1:pos:R:3:REF_forces:R:3 -97188.57734165563=T REF_energy=-4214.53124686312 pbc="F F F"
C       -0.45347970       0.09723714      -0.39842627       1.78041561      -3.01365039       0.69903597
C        0.47472322       1.15446978       0.05913178      -3.84526994       2.76344276      -2.50901691
O        0.01882848      -1.10307733       0.33081394      -0.17916580       0.07790587      -0.16754053
H       -1.53686039       0.12680126      -0.21154036       0.10420567       0.83614999      -0.23472406
H       -0.12234296      -0.02599162      -1.42101126      -0.96818066      -0.34697203      -1.10324099
H        1.40926769       1.19505965      -0.46019824       0.59685264       0.00453733      -0.43782076
H       -0.29695516       1.99805141      -0.29015487       2.29577362      -0.25331966       0.90997966
H        0.56359427       1.13064168       1.07838255       0.35222412       0.31889649       2.91731308
H       -0.56970351      -1.83196052       0.09645400      -0.13685526      -0.38699038      -0.07398545
9
Properties=species:S:1:pos:R:3:REF_forces:R:3 -97193.01505119627=T REF_energy=-4214.7237395476 pbc="F F F"
C       -0.42298542      -0.00058590      -0.44396499       1.17039139       1.40145447       0.71811517
C        0.43659781       1.24775463       0.01121435      -1.13081681      -0.04219104      -1.73228052
O       -0.01429181      -1.11805833       0.40778784       0.65742376      -0.92508383      -2.03765921
H       -1.38659979       0.09413171      -0.04027153      -1.92361976       1.15133393       0.46688441
H       -0.64121830      -0.01723319      -1.55334776       1.05337507      -1.01245017       0.61479444
H        1.52285409       1.27321239      -0.22695768      -0.56189028      -0.24095412      -0.46736714
H       -0.09781310       2.18594890      -0.35014353       0.76462618      -0.76405615       0.42758321
H        0.39161608       1.17121753       1.06669045      -0.11347548       0.36669935       1.46970541
H        0.27482464      -1.82279933      -0.21224143       0.08398593       0.06524757       0.54022424
9
Properties=species:S:1:pos:R:3:REF_forces:R:3 -97182.08496738259=T REF_energy=-4214.24975222984 pbc="F F F"
C       -0.22941344       0.00538128      -0.56697778      -1.58633361       0.64911237       2.22172916
C        0.17535663       1.24230618       0.27487861       4.92819112       0.70811971      -6.68830234
O        0.04839213      -1.11303747       0.30229716       1.37600911      -0.67190560      -0.60503751
H       -1.35880146      -0.10703666      -0.47266180       0.61967450       1.14762431      -1.38821853
H        0.17891762      -0.04185057      -1.59511114      -0.06712134      -0.12648078       0.31347140
H        1.37009733       1.54217071       0.19984297      -2.53386432      -1.46359547       0.86827836
H       -0.15246906       2.11551308      -0.24837468      -1.04991308       0.94131274      -0.22961378
H       -0.25184126       1.11638732       1.14280398      -1.79282911      -0.25839435       5.25829802
H        0.08910735      -1.82658487      -0.34429376       0.10618673      -0.92579292       0.24939521
9
Properties=species:S:1:pos:R:3:REF_forces:R:3 -97200.40592842297=T REF_energy=-4215.04449590949 pbc="F F F"
C       -0.22470403      -0.01570359      -0.56953802       1.04351495      -0.24490189      -0.37920595
C        0.24373485       1.28727141       0.19058911      -1.91128352      -2.07677295       0.35967871
O       -0.07244001      -1.13111503       0.32411155       1.14164268      -0.94674325       0.34435436
H       -1.29208109      -0.16488308      -0.74542386      -0.38733245       1.08033265      -0.27715911
H        0.27936182      -0.20771528      -1.58337047      -0.25165090       0.36948257       1.10686578
H        1.26219876       1.15819351       0.47677755       1.12135521      -0.31543842       0.42566621
H        0.21001240       2.22509566      -0.31591666      -0.55319452       0.84960990      -0.69381562
H       -0.40225182       1.24326931       1.11317582       0.65112340       0.59141148      -0.57537325
H        0.86486464      -1.45296989       0.42560452      -0.85417484       0.69301988      -0.31101113
9
Properties=species:S:1:pos:R:3:REF_forces:R:3 -97195.1149040681=T REF_energy=-4214.81467515532 pbc="F F F"
C       -0.19934152      -0.01145179      -0.49678137      -2.81332247       0.76314650       0.24914927
C        0.12931063       1.32267864       0.25634956       1.45250364      -1.98761857      -4.20727389
O        0.11565831      -1.17012556       0.26321558       0.27762267       0.20940031      -0.18748626
H       -1.35896001       0.01290406      -0.69877359       1.45498909      -0.11727180       0.37323832
H        0.19279068      -0.01965404      -1.55513657       0.42603996       0.06400466       0.84298806
H        1.21239814       1.24574172       0.38445596       0.31753022       0.73736044      -0.03852347
H       -0.18085011       1.95372506      -0.60509286       0.52155403       0.89745997       0.92587792
H       -0.29773549       1.54143467       1.17065996      -1.52870036       0.18024221       1.90943459
H       -0.57002485      -1.78651321      -0.00922396      -0.10821677      -0.74672372       0.13259546
9
Properties=species:S:1:pos:R:3:REF_forces:R:3 -97196.05036538353=T REF_energy=-4214.85519755226 pbc="F F F"
C       -0.12775344      -0.04069631      -0.51784145       1.05788275       1.18592097       0.20717617
C        0.15108004       1.34737125       0.17740082      -0.62237605      -3.40268719       0.70353998
O        0.03462673      -1.15731198       0.32206139       0.76702735       0.22397092       1.31145719
H       -1.12445958       0.13487488      -0.71540203      -2.79121629      -0.35484958      -1.19591727
H        0.40896996      -0.21693591      -1.43397024       0.60668840       0.23087613      -0.80412041
H        1.06511133       1.20854483       0.71960855       0.76544689       0.67459393       0.59900309
H        0.09544111       2.15091564      -0.49406879       0.32001237       1.22137119      -1.21034778
H       -0.73061302       1.39246879       0.82217118       0.28390862       0.50393554       0.68426157
H       -0.54304347      -1.87138366       0.04618311      -0.38737404      -0.28313192      -0.29505254
9
Properties=species:S:1:pos:R:3:REF_forces:R:3 -97199.41802556562=T REF_energy=-4215.00160417819 pbc="F F F"
C       -0.50330089       0.02655224      -0.32213672       0.85824200       1.59702851       1.38446501
C        0.45380835       1.24237561       0.01689117       0.42745983       0.25839661      -3.58542780
O       -0.00007185      -1.15790760       0.32505289      -1.13085076       0.66795317       1.27607344
H       -1.54696912       0.36650502       0.01464181       1.03768015      -1.06283827      -0.26075727
H       -0.48219845      -0.17421524      -1.36614141      -0.35071106       0.14889109      -1.33215890
H        1.53531149       1.01029854      -0.14761378      -0.57335992      -0.30704157       0.22037262
H        0.32401101       2.16601398      -0.68835196      -0.31299571      -1.41607199       0.92613254
H        0.33161163       1.60058682       0.98514233      -0.30753868       0.53440109       2.12746376
H        0.42814220      -1.71145266      -0.32002809       0.35207414      -0.42071864      -0.75616340
9
Properties=species:S:1:pos:R:3:REF_forces:R:3 -97197.8296593279=T REF_energy=-4214.93251912167 pbc="F F F"
C       -0.45522881       0.04975412      -0.40303695       2.01507905      -0.70305865       0.05750183
C        0.42089828       1.21396950       0.07861584      -0.11099650      -0.33670619      -1.70359386
O        0.04189026      -1.12346517       0.31403873      -0.74472939      -0.79657052       0.13655212
H       -1.44304419       0.39799318      -0.22405876      -1.69890320      -0.61764179       0.33934504
H       -0.26519871      -0.05769123      -1.51613577      -0.42511451      -0.03262431       0.82547495
H        1.37199975       1.02098785      -0.40807490       0.65850479       0.46576518      -0.05170451
H       -0.07690400       2.08209851      -0.39786387       0.55632711       0.23810775       0.44436045
H        0.62019781       1.32747580       1.13778160      -0.51470310      -0.06379555       0.46146120
H       -0.46389369      -1.99783078       0.28933019       0.26453574       1.84652407      -0.50939721
9
Properties=species:S:1:pos:R:3:REF_forces:R:3 -97194.79168720466=T REF_energy=-4214.80106237635 pbc="F F F"
C       -0.44926989       0.06770170      -0.38116382      -1.54711397      -1.33443311       1.72182028
C        0.41977776       1.20120699       0.00131999       4.04914986      -0.29971909       0.97609781
O       -0.05750050      -1.17293099       0.34132791      -1.06966023       0.77457084      -1.02985803
H       -1.50261098       0.19194373      -0.06618674       0.12702283       0.09356973       0.15681352
H       -0.53694475      -0.03284450      -1.48214054       0.56258644      -0.28189023       0.14070713
H        1.36784361       0.97039374      -0.57814190      -0.50043759       0.88112667       0.10190899
H        0.10615389       2.18935774      -0.18311815      -0.80424941       1.34560938      -1.04763249
H        0.92782068       1.37897308       1.04185569      -1.57403336      -1.20458554      -0.91843800
H        0.90090555      -1.20138710       0.37596076       0.75673544       0.02575135      -0.10141919
9
Properties=species:S:1:pos:R:3:REF_forces:R:3 -97198.24616614544=T REF_energy=-4214.95068827242 pbc="F F F"
C       -0.41276530       0.04314298      -0.32840706      -2.45602346      -0.69240766      -2.42443123
C        0.40838791       1.21225925       0.00386996       1.58622801       1.60083981       1.85262008
O       -0.00118206      -1.10774019       0.31386399       1.71224386      -1.82094999       1.55441674
H       -1.51175708       0.08729483      -0.10960439       0.32757778       0.93572780      -0.30197418
H       -0.28422874      -0.08306850      -1.44430400      -0.49599354       0.01839066       0.42360215
H        1.41268338       1.07031031      -0.39849744       0.17183463       0.24434602      -0.79189742
H        0.04025257       2.25674087      -0.17111505      -0.08568338      -0.97662768      -0.48460323
H        0.71872235       1.25619866       1.06325575      -0.65365592      -0.24190490       0.37764177
H       -0.30573708      -1.96489274      -0.05460067      -0.10652798       0.93258595      -0.20537468
9
Properties=species:S:1:pos:R:3:REF_forces:R:3 -97199.0324871839=T REF_energy=-4214.98474804638 pbc="F F F"
C       -0.25241621      -0.03120088      -0.57449766      -1.39454489       2.67088685       1.57605963
C        0.15876723       1.25714048       0.28428605       0.48990825      -1.27128365       0.16844515
O        0.08531761      -1.08109616       0.26924155       0.49022129      -0.50940428       0.86155070
H       -1.36435238       0.01992984      -0.78360310       0.78100155      -0.22187805      -0.17644287
H        0.35326493       0.01459045      -1.46682526       0.16180001      -0.16511760      -0.88224869
H        1.24191583       0.97321216       0.45656256      -0.53710446       1.13669268      -0.29048239
H       -0.03110803       2.22359562      -0.27939734       0.41072805      -0.91324544       0.79860612
H       -0.23725835       1.22638107       1.36543211      -0.12749125       0.18529327      -1.63375450
H       -0.20179939      -1.90697691      -0.10775202      -0.27451855      -0.91194377      -0.42173314
9
Properties=species:S:1:pos:R:3:REF_forces:R:3 -97188.74537227952=T REF_energy=-4214.53870269311 pbc="F F F"
C       -0.46470537       0.05055914      -0.28684053       2.71603052      -0.18804742      -1.78986026
C        0.48024614       1.28717746      -0.05622598      -0.08653040      -3.25413989       4.20297041
O       -0.07555624      -1.21805998       0.33343602       0.40175516       1.66847614      -0.46571615
H       -1.47817181       0.07695713      -0.19604770      -3.17043029       1.09495375       1.23720912
H       -0.39702034      -0.06969086      -1.36738482       0.12146879      -0.50225607      -0.81572540
H        1.52301687       1.03357043      -0.38169063      -0.78746116       0.57782663      -0.13519567
H        0.04616364       2.19883670      -0.32991373      -0.43178206       1.53936668      -1.07145141
H        0.50654598       1.32000210       1.11500152       0.39944004       0.32375453      -1.58631618
H        0.81262311      -1.16704906      -0.04470628       0.83750941      -1.25993434       0.42408555
9
Properties=species:S:1:pos:R:3:REF_forces:R:3 -97190.97513401887=T REF_energy=-4214.63514523237 pbc="F F F"
C       -0.09343074      -0.01933341      -0.59397444      -2.85827618       0.11399268       1.79659906
C        0.11439634       1.23941475       0.24403160       2.06678225      -0.69599878       0.16047019
O        0.03829089      -1.13766055       0.28985974      -0.33545983      -1.38716254       0.55547743
H       -1.18829732      -0.08686150      -0.81972926       0.50260567       0.58507402      -0.92182450
H        0.48904799      -0.12877579      -1.52548621       0.19736363       0.12117719       0.46706161
H        1.19442241       1.38419903       0.40366810       0.07986398      -0.39871005       0.67630054
H       -0.04153065       2.07492098      -0.30916635      -0.82595235       2.88380668      -2.61477367
H       -0.44025227       1.55189664       1.13612161      -0.24964359      -1.31646238       0.35243325
H       -0.87201241      -1.27697228       0.68349158       1.42271641       0.09428318      -0.47174389
9
Properties=species:S:1:pos:R:3:REF_forces:R:3 -97191.64687209843=T REF_energy=-4214.66426770229 pbc="F F F"
C       -0.24537046      -0.01767588      -0.50358145       0.26244670       1.27165516      -0.92996534
C        0.15455022       1.33295438       0.24781583       1.94734758      -5.77461151       1.65765007
O        0.10739024      -1.14262586       0.26572127       0.58116368      -0.19076238       0.52362295
H       -1.32627232       0.00792699      -0.56001937      -0.78899829      -0.04268945      -0.71069711
H        0.25077347      -0.08414061      -1.57285099      -0.86392722       0.36835095       1.58687534
H        1.30344808       1.05272977       0.29677080      -1.85642686       1.73940885       0.56247806
H       -0.16474496       2.07748378      -0.36512061      -0.39699919       2.77015460      -1.78020809
H       -0.42696354       1.31423331       1.23102289       1.13364854       0.19458295      -0.92614302
H       -0.25965258      -1.90538764      -0.19996837      -0.01825495      -0.33608918       0.01638713
9
Properties=species:S:1:pos:R:3:REF_forces:R:3 -97197.21769805701=T REF_energy=-4214.90607491137 pbc="F F F"
C       -0.15882325      -0.01309934      -0.61574804       0.26396920       0.41839527       1.05352729
C        0.19278831       1.33037613       0.20667647      -1.43212422      -1.99736196      -1.29147962
O       -0.02524321      -1.15798498       0.39440847      -0.38541756       2.14676025      -1.07036527
H       -1.25665744       0.16241367      -0.95266251       1.51037228      -0.83901594       0.21339397
H        0.57016346      -0.15644821      -1.47932819      -0.94697441      -0.02992860       0.74117893
H        1.24779641       1.29401475       0.53094294      -0.36270835       0.48342080      -0.12291363
H       -0.17360266       2.18029051      -0.44468527       0.83118599      -0.47363773       0.78432313
H       -0.52115019       1.18227828       1.04081539       0.50713822       0.63081062       0.18498618
H        0.12842545      -1.97971433      -0.08114014       0.01455885      -0.33944271      -0.49265098
9
Properties=species:S:1:pos:R:3:REF_forces:R:3 -97198.00214959287=T REF_energy=-4214.94001464286 pbc="F F F"
C       -0.18330639      -0.00567489      -0.58859776       0.06896866      -0.61877842       0.25348386
C        0.12828767       1.25052181       0.22235761      -1.55008450      -1.66079437      -0.87204138
O        0.06672371      -1.08247842       0.34928542      -0.53159232      -0.93235384       0.09052811
H       -1.21729182      -0.02149529      -0.96531229       0.04851406      -0.15585457      -0.25250671
H        0.58647914      -0.08675702      -1.40958351      -0.78839533       0.06365466       0.20215193
H        1.03910277       0.88126000       0.58094520       1.71774061       0.35074268       1.71690214
H        0.32045277       1.96825461      -0.50949400       0.27272312       2.02215761      -0.98385042
H       -0.66898918       1.51003025       0.93001288       0.39346528      -0.00712729       0.11985577
H       -0.46426487      -1.90392048       0.19324582       0.36866042       0.93835354      -0.27452329
9
Properties=species:S:1:pos:R:3:REF_forces:R:3 -97201.58121299694=T REF_energy=-4215.09514705521 pbc="F F F"
C       -0.39477701      -0.00423786      -0.38543935       3.25549862       0.86377490      -2.06878489
C        0.39415290       1.25838425       0.07298900      -0.92732554       0.39117524      -0.86340418
O        0.01814544      -1.18987430       0.24484708      -1.19160506       0.02223354       2.07402285
H       -1.41394087       0.30046761      -0.36788329      -1.58595750      -0.44228263       0.27131107
H       -0.08515600      -0.23472647      -1.44128400      -0.59019529       0.58659741       0.31303584
H        1.45423020       1.32706581      -0.23682639      -0.26365909      -0.33667576       0.38839595
H       -0.13644184       2.10569261      -0.41477257       0.30013063      -0.05529057      -0.06129873
H        0.21840826       1.46975101       1.13061754       0.39370251      -0.18804377       0.40973430
H       -0.31868126      -1.02695764       1.16678692       0.60941072      -0.84148834      -0.46301221
9
Properties=species:S:1:pos:R:3:REF_forces:R:3 -97192.38378310855=T REF_energy=-4214.69621533093 pbc="F F F"
C       -0.42149647       0.01052565      -0.39386270      -2.54601108       1.38601277       0.77552806
C        0.45950536       1.24372817       0.07118545      -0.65652991      -2.47850787       0.40848809
O        0.01699762      -1.11463908       0.28669608       2.70907783       1.21698661       0.64160023
H       -1.50326265       0.36045071      -0.09076487       1.20995879      -0.79372131      -0.09388497
H       -0.58372460      -0.13304094      -1.50128725       0.91340411       0.13738274       0.46396726
H        1.49264952       1.05787423      -0.26943090      -0.09572480       0.47649866       0.31929562
H       -0.05671309       1.99814227      -0.46237492       0.00561332       1.69921879      -0.55020326
H        0.34111638       1.39227335       1.20395432       0.35219973      -0.26802675      -1.52005801
H       -0.41378126      -1.92992310       0.41412193      -1.89198799      -1.37584365      -0.44473302
9
Properties=species:S:1:pos:R:3:REF_forces:R:3 -97195.56204148738=T REF_energy=-4214.83406628028 pbc="F F F"
C       -0.47610604       0.07364743      -0.35500344       2.22332198      -0.70282596      -0.70259453
C        0.43614365       1.18538740       0.06455860       1.08592154      -1.16695463       0.42566054
O        0.06316959      -1.12144480       0.30763258      -2.84568449      -0.74000907      -1.60172747
H       -1.47904120       0.30478968      -0.12933223      -1.75484628       0.06634816       1.01626888
H       -0.52913494      -0.12630266      -1.47945652       0.58594616       0.46057112       0.82090195
H        1.45181344       0.96875415      -0.31229144       0.14687174      -0.42258120       0.68591887
H        0.23635771       1.97508867      -0.57169956      -0.94419809       2.65592493      -0.82078526
H        0.43085564       1.40656031       1.17069613      -0.08471810      -0.09836482      -1.09375175
H       -0.63835848      -1.73205479      -0.10011502       1.58738553      -0.05210852       1.27010877
9
Properties=species:S:1:pos:R:3:REF_forces:R:3 -97187.49928366813=T REF_energy=-4214.4846076914 pbc="F F F"
C       -0.25796928      -0.01616613      -0.55747543       0.12313327       2.11347038       1.47884781
C        0.18631441       1.23626202       0.23922603       0.49841487       2.36204372      -2.79016187
O        0.06515827      -1.11010224       0.34466986      -1.27602819      -0.29493169      -1.63249352
H       -1.35707539       0.16470471      -0.86633626       1.16056788      -1.00192071       0.35062531
H        0.43502066      -0.14070284      -1.40900389      -0.57028450       0.31082197      -0.37019745
H        1.36720541       1.23248794       0.11348485      -2.20436623       0.33906220       1.23928877
H       -0.19194375       2.22667083      -0.39258908       0.96731151      -2.13514276       1.34799092
H       -0.32824912       1.36414602       1.23370647       0.98639206      -0.47058976      -0.59544310
H       -0.10638234      -1.76651605      -0.35804529       0.31485934      -1.22281336       0.97154314
9
Properties=species:S:1:pos:R:3:REF_forces:R:3 -97191.30955383097=T REF_energy=-4214.64975329546 pbc="F F F"
C       -0.19860907       0.04059521      -0.55093374       1.62978204      -2.17121759       0.85925485
C        0.14006089       1.31354005       0.22593585      -0.36139310       0.36964752      -0.82304804
O        0.08630130      -1.20839333       0.28774303      -1.34589983       0.32479916       0.42970034