12288
Lattice="49.6 0.0 0.0 0.0 49.6 0.0 0.0 0.0 49.6" Properties=species:S:1:pos:R:3:momenta:R:3:forces:R:3 energy=-432.4933 pbc="T T T"
O        6.23787054       0.27643300       4.80512116      -2.90649513      -0.84627597      -2.75601364       2.12761617      -2.01956177      -0.42762148
H        6.08704188       1.18611721       4.63941205      -0.12041167       0.27219650      -0.12323607      -0.01014732       1.22434616      -0.85286504
H        7.06151837      12.37841198       4.25873338      -0.29668328       0.69035858       0.13622248      -1.87920272       0.69747365       0.78435951
O        6.83163398       3.64539857       0.12031316      -1.74916594      -0.77853290      -1.38279789       2.66228390       7.65875912       1.17607331
H        6.75289368       2.78927057       0.04565082      -0.32022526      -0.14375779       0.27096519      -0.68390751      -7.51927328      -1.09047079
H        7.79941876       3.86597213       0.16623229       0.24865991      -0.06664330      -0.13831756      -1.93096066      -0.26618522      -0.22846845
O       12.25814196       3.26229374       3.81403265       0.43118848       1.17639268       1.66371294       3.33724523       1.04331088      -0.21405190
H        0.77661809       3.46556836       4.34046323       0.18334900      -0.25151165       0.16378034      -3.29036188      -1.15389621      -1.81331837
H        0.15334588       3.17394026       2.85257579       0.10254012       0.25526333      -0.09107854       0.04188532      -0.19671725       1.97328806
O       12.35307189       6.39404354       1.56304309       0.77443454      -0.84498547      -1.28078201      -0.49353194       0.24843276      -1.06168556
H       12.21746659       5.46770229       1.74172607      -0.26958253      -0.47304534       0.40483924       0.35592404      -0.11792231       0.48682299
H        0.86240610       6.70531244       1.69911304      -0.30333086       0.00922473       0.08427403       0.47096586      -0.30797544       0.57853782
O        9.06157814      10.00090541       1.10693361      -2.10594449       0.15176957      -0.55346363       3.05495715       0.21271479      -6.12106037
H        9.01603350       9.84697399       2.00875231       0.24266692      -0.02618445      -0.09481483       0.32822037      -0.86594486       2.45987582
H        9.98242222       9.69793670       0.64764818      -0.46089071       0.41444804       0.42501775      -3.59334755       0.99756145       2.07513952
O       11.12593294      12.31795510       4.39835230       1.07444731       1.92334929      -1.50863978       2.47148895       2.13614964       0.48061579
H       11.87096970       0.63459991       4.46052391      -0.12845785      -0.22661572       0.05940741      -2.09723186      -1.81836581      -0.26006228
H       11.50004539      11.63379895       4.96214512       0.20120749      -0.22316734       0.15926294      -0.18193102      -0.29918671       0.28601670
O        1.74865449       2.46229438       5.53621294      -1.05790812      -1.24947101       2.07554717      -6.11270809       0.65854859      -0.73465061
H        1.30582432       1.61312352       5.45648645       0.04639588      -0.21179546       0.22811270      -0.05944622       0.31261611       0.16225670
H        2.57166179       2.25521161       5.75355768       0.13045001       0.24896530       0.07624922       5.98080778      -0.98103505       1.28077102
O        8.02951818       0.28656010       6.43534120      -2.16063285       0.53101523       0.17907721      -0.56160390       0.37528205      -0.51256257
H        7.12961443       0.54885685       5.93776842      -0.19284526      -0.25666409      -0.09973112       1.36578870      -1.40816307       0.37264302
H        7.85222586       0.19088268       7.36158019       0.14852298       0.09058216      -0.01158841      -0.54751605      -0.00569209       0.88512766
O        5.74933552       4.94361789       5.66813883      -0.01871553       0.81307980      -0.77069621      -3.61526895      -1.63519287      -1.54941130
H        6.58296617       5.35631439       5.55662642       0.12274256      -0.36582601      -0.01005587       1.15871894       0.94408107      -0.49444610
H        5.20771523       5.00068618       4.78200213      -0.48951747      -0.16694306      -0.34062016       2.05005217       0.08106205       2.84277105
O        9.85747808      10.79330080      10.48880625       0.83305078      -1.31601086       1.19167277       1.57602608      -2.89870358      -4.13366699
H       10.04110365      10.17384555       9.57639017      -0.05308622      -0.28472546      -0.14213051      -0.45027816       1.00867820       3.55962896
H        9.45548504      11.48946388       9.99922950      -0.13230614      -0.37473914       0.27782794      -0.89046395       0.76376212       0.20156366
O       10.17176765       1.91556551       6.46364007       2.77980891       0.83875264      -0.33300574       0.60095406      -1.93581462      -1.89513111
H       10.14558198       1.44395647       5.56653269       0.42891922      -0.06780987      -0.10826211       0.32415125       1.39418864       1.87623227
H        9.50689796       1.36415543       6.88153506      -0.03484230      -0.15619780       0.38093689      -0.70605522       0.39904422       0.11712027
O        8.50232826      12.00135149       3.22729896       0.36869798      -1.78276408       1.15654533       1.66299713       0.21926892       0.62321508
H        8.64147533       0.48722520       2.89886113      -0.20566166      -0.06080194       0.26181934      -0.89382845       0.82255018      -0.85014910
H        9.46321724      11.95502282       3.47054221       0.04385955       0.24243706       0.30041376      -1.35930073      -0.94695091       0.31559935
O        9.14786156       1.69295538      11.18752436      -1.78908191      -1.83480176       0.09497247       1.95868599       0.13275325       1.52293050
H        8.78536280       2.05392212      10.42006987      -0.15935870      -0.06420460       0.22249472      -1.93846071       1.09939206      -2.55933905
H        9.71524012       2.48342245      11.36960699      -0.17110140       0.00872850      -0.17580058      -0.39650959      -1.11747479       0.16715083
O        3.51060696      11.90865514       4.41527181      -0.46187718      -0.62685516       2.70889396       0.71730697      -1.39655185       1.52240753
H        3.40364579      11.06774784       5.01999396       0.26373989       0.31956044      -0.09554970       0.14744827       2.66853595      -1.34775639
H        4.09014164       0.02617303       4.99492950      -0.10736405       0.04125706       0.50274254      -0.14883673      -0.01360071      -0.28652310
O        4.46819553       1.69036858       6.10050281       0.95131134      -1.16299393       0.28999738       3.30574203       5.31395769       2.73049068
H        4.31550063       1.72772166       7.09096441      -0.33759895       0.08329178      -0.38149916       0.05716008      -0.64088035      -1.49498451
H        5.22409159       2.54931852       6.07413018      -0.06188229      -0.17952222      -0.07055308      -3.47802138      -3.55969715      -0.43630439
O        5.17192765       4.74439575       8.78328652      -0.00513648      -1.02873646      -0.30438666      -0.56847781       9.80660343      -3.30318403
H        5.20143200       3.91047745       8.71986606       0.06340408       0.05553133      -0.39251285       0.20247367     -10.34331322       0.14721623
H        5.32453496       5.02386330       7.81177029      -0.28085241       0.33855127      -0.04797291       0.59211546      -0.45770949       1.72428489
O        0.04696009       0.49724223       7.82803855      -1.17696756      -0.03578096      -1.14317560      -1.77954483      -1.43666911      -0.72340703
H        0.45542555       1.20221627       8.29832951      -0.26074568       0.02456532      -0.41674301      -0.18666083       1.20431256       0.58584791
H       11.46106872       0.44184184       7.90662562       0.02115922       0.16409944       0.70540962       1.75546527       0.99746221      -0.03365773
O        8.08969181       6.07188970       1.49545513      -1.25299469       0.27093014       1.15605944       4.67250824      -0.57800114       1.09003556
H        9.07679981       5.94265979       1.95836197      -0.51783997      -0.38017752       0.04262410      -4.43103981       0.62947243      -1.19026661
H        7.48225289       5.44186916       1.88790993      -0.32634016      -0.13353332      -0.10527099       0.11125958       0.15415674       0.29315966
O        2.92978593       6.57056375       9.71917850      -0.73600383       0.44992136      -0.28166815      -0.76076436      -0.80745018      -0.82032716
H        2.83541402       6.29234304       8.64020550      -0.22707144       0.05163667      -0.22301917      -0.28409731       0.93209457       2.28732753
H        2.21847784       6.29264498      10.33801825       0.47842895      -0.15970472      -0.49864529       0.54365671       0.03100073      -1.14809489
O        9.04582259       4.03285279       4.95477331       0.67920282       1.19762849      -0.46356530      -0.33900452      -0.47350538      -0.94997358
H        9.29336586       4.79563875       5.44541261      -0.47710074       0.27878348      -0.09838629      -0.13781822       0.83406627       0.50987679
H        9.76948813       3.83313251       4.37042280       0.08948356       0.56433331       0.26032329       0.22225749       0.46238798       0.08721709
O       12.19777018       0.12356507       1.93554178       2.18627755       1.99416870      -1.31277277       1.14090824       0.46591425      -1.58710003
H       11.75531593      11.93520794       2.50109792      -0.15224001      -0.01080614       0.08192152      -0.66856557      -0.98171252       1.36986256
H       12.32390330      12.00490914       1.13646596       0.23764136      -0.06574980       0.14414770      -0.08888818       0.26230454      -0.17963398
O        2.50709566      12.32637620      11.90385859      -3.39118587      -1.54271772       0.57483976       6.96466732       1.06102431       0.49841523
H        1.74438296      12.01152679      11.67283632      -0.06991042      -0.36195835      -0.17743482      -7.49810600      -2.78856087      -1.80244470
H        3.05608345      12.04511774      11.13579520      -0.23693299       0.16674787      -0.20786795      -0.11177254      -0.00114560       0.88178790
O       11.94540219       6.10525552      10.98176412       0.13034292       0.39639324       1.47482744      -0.17104077      -1.42921793       2.36670756
H       12.14820197       6.01670761      11.97534536      -0.28241635       0.03425161      -0.10011595      -0.26352447       0.50883728      -2.20308113
H       10.93749387       5.91193984      10.97455064       0.13884279       0.11050976      -0.20291296       1.06899691       1.20124984      -0.29123607
O        9.59796207      10.32782589       5.72973139      -0.12134648      -1.47140707      -0.51695518       1.43876767       0.47429180       2.48780131
H       10.14360488       9.96591881       6.54507718      -0.52924025      -0.28438532      -0.20526920      -2.13354683       1.02778077      -2.08031678
H        9.21758794      11.24117817       5.96105414      -0.15800624       0.19992906       0.30263709       0.30592841      -1.75346541      -0.08562025
O        9.74895686       8.81033326       8.41204267       1.21309617       0.33803988      -0.22463457      -0.21195918      -0.20542932      -0.71841443
H        9.98528841       7.87931863       8.14013377       0.00497073      -0.05625719      -0.06231000      -0.71786284       1.56122315       0.52873516
H        8.76809193       8.92479944       8.27506234      -0.08451330      -0.26245109      -0.42622408       1.05282331      -0.80043644      -0.00281280
O        6.19025547       1.09727451      11.99148102       1.00553445       1.74656614       1.26266226      -1.04685628      -4.55268955       2.32769775
H        5.59114869       0.32815157       0.08341770       0.38289892      -0.01105446       0.01195868       1.70682657       3.28284407      -2.00614977
H        7.01165691       0.61152094      12.25832114       0.28501119       0.15140915       0.16755997      -0.34609568       0.98438799      -0.55216825
O        1.51516330       2.36542835       1.82800663       1.04191606       0.17338578      -1.48263462       0.40689987      -0.23254335       4.01662254
H        1.37459422       2.59121134       0.96812831       0.06438020      -0.47801564       0.09343451      -0.68375486       1.32645452      -4.32572031
H        1.20782927       1.46752682       1.85772018      -0.19496137       0.54139058       0.16738515      -0.43820891      -0.67325187       0.37155563
O        2.22516658       7.68250387       2.21034947      -1.54035285      -0.65095853      -1.89516750      -0.98195755      -0.66774595      -2.81735802
H        2.50969568       8.36489383       1.57333460      -0.29177012      -0.15016932      -0.11532863      -0.02278602      -0.65442955       1.45188105
H        2.44172700       7.87170239       3.10323145      -0.45552519       0.33279629      -0.00284136       0.60140556       0.90264869       0.97992206
O        4.98853658       7.29864431       1.38481217       0.39742139       1.32124147      -1.18605676       0.08130836       1.29725206       0.57377565
H        4.68264939       8.26485447       1.58071015      -0.16491407      -0.65283355       0.01336661       0.60779560      -2.37321115      -0.89337367
H        4.34256191       6.77596617       0.91686096      -0.08652629      -0.00521764      -0.11423006      -0.41553468       0.11173153      -0.08683956
O        3.84985992       6.81192896       4.38305290      -0.58818263      -1.49089715       3.35133146      -0.80907822      -0.50819683       0.32362789
H        3.20170256       6.30072301       4.86484613      -0.02913887       0.25264990      -0.15533808       0.02421105      -0.01229322      -0.05205953
H        3.98040870       6.41423371       3.51810041      -0.03913999      -0.24300126      -0.00170463       0.18999243       0.17046404       0.05068266
O        0.60441057       3.60187200       8.78407277      -0.93960460      -0.56632784      -1.65779326      -0.52585554      -0.30363321      -3.55381322
H        0.49442143       3.88172777       7.79257203       0.15528872       0.15095529       0.12630264       0.29719841      -0.99495828       3.06465149
H        0.94150277       4.38745027       9.18692129      -0.49459141       0.10843802       0.15916422       0.04335183       0.82755911       0.37331617
O        9.72595581       4.23438380       8.15178794       1.19750238       0.54297829       1.44497804       1.74952126      -4.60786963       1.72800159
H        9.81193817       3.70626592       7.31054418       0.26319565       0.26273733      -0.36847302      -0.41627145       1.01956475       0.58381331
H       10.00980409       3.37608981       8.75236840       0.01002799       0.05527396      -0.04445774      -0.74325013       3.83256149      -2.14930344
O        3.09810861      10.92872448       6.63977230      -1.21147966       0.78761240      -0.31103427       0.50599056      -1.12250423       2.95958400
H        3.84019149      10.31414974       6.85628539       0.07925069       0.34179905       0.34036978      -0.30307114       0.64009541      -0.93485379
H        2.58646733      10.92826118       7.50398913       0.18556215       0.13321547      -0.77779049      -0.05526960       0.07871352      -1.70482039
O        7.88826264       6.62949282       6.44332224       2.01825159       0.86778403      -0.22881633       1.43011737       1.60041523       0.16092598
H        8.63261386       7.08636131       5.95890234       0.01420073      -0.00664406       0.00164536      -1.46620548      -0.82657295       1.00513566
H        7.52635345       7.26912567       7.17940604      -0.04209684      -0.06154324       0.00563376       0.85180753      -1.31157219      -1.53049219
O        2.30566005      10.20541730       3.15791073       1.18189282       2.53827973       0.79194963      -0.81087583       1.55576110      -1.99377143
H        2.62246464      11.04339771       3.60139515      -0.02310722      -0.11450454       0.41455251      -0.40194488      -1.16887009      -0.57029343
H        2.30462251      10.47459421       2.19955491      -0.34470811       0.04755519       0.15489627      -0.19668177      -0.84014440       1.70585942
O        4.99630151       2.10016218       9.29056942      -1.43668170      -0.09780264       1.60567956      -1.72443461      -2.56983066       2.82267952
H        4.28427970       2.25603065      10.11388784       0.30532530       0.20131921      -0.51106812       2.41277504      -0.36121044      -2.33276176
H        5.23732868       1.13619340       9.59665530       0.10739450       0.57234137       0.18239797      -0.39522773       2.56716871      -0.86640918
O        3.14476799       6.38285865       7.27156933       1.04984979       0.11896910       0.86334273      -0.00026631      -2.10419178       0.42701817
H        3.55227085       7.23572835       7.28969982       0.09971908      -0.14259629      -0.01365428       0.50120944       0.88250721      -0.32939357
H        3.85737762       5.70834950       7.37523859       0.30754722      -0.19424455       0.22101356      -0.80637705       0.97574210      -0.70495987
O        7.01405167       8.28241966       8.18586112      -1.13196358      -0.73730299       1.35815490      -0.32396042       0.03794906       1.51522350
H        6.68205704       7.87409745       9.07566152      -0.04116225       0.06197527      -0.53694147       0.07110542       0.36734498      -1.70832980
H        6.35118616       8.75320996       7.66124991       0.25112604      -0.08262236      -0.29737450      -0.24290907       0.34732324       0.12291116
O        6.11217005       8.16384775       4.28655487       0.34988847       1.91135984      -1.54662512       0.79247558      -0.32298946       1.61501110
H        6.84048827       8.28747772       3.70566806       0.32939173      -0.64701815       0.38017241       1.01720667       0.25561342      -0.73968720
H        5.37812135       8.49989059       3.82047585       0.76300214      -0.13316092      -0.15675364      -1.24713731       0.49963298      -0.53065765
O        3.94505957       0.92293576       1.57590255      -0.29365074       1.32235676       1.31355940      -1.56288588      -2.73024273       2.71834683
H        3.15339883       0.33169147       1.86608696       0.00230095      -0.20950129      -0.11143162       2.06808257       1.95696902      -1.18097782
H        4.41225094       0.86537068       2.43336651       0.29179604      -0.19957966       0.09162176       0.21538985       0.14128849      -0.83155322
O        6.09507179       6.74154332      10.04211001       0.17267024       0.05743764       0.65498487       0.89562905       1.07175517      -0.99760777
H        5.95663948       6.72310400      10.95739363      -0.40331705       0.08490239      -0.28533533      -0.30908173       0.22901118       2.15394783
H        5.63716286       5.97581182       9.68789543      -0.06045475       0.51009842       0.21913027       0.01523817      -0.20616424       0.10698128
O        3.64108377       2.06982930      11.68944441      -1.11391876      -0.17451270      -2.12695079      -0.27981150       0.49510783      -1.45081902
H        3.44177632       1.15484021      11.97609646       0.08529685       0.02015377       0.36083014      -0.08523729       1.05681956       0.33647752
H        4.44825761       2.34608253      12.10209300       0.38088312       0.23610580      -0.42399577       0.68240249      -0.01257885       0.53381455
O       11.77915988       8.86416948      12.27334252       0.82791782      -0.22264688       0.39050365       0.95965421      -1.09131527       6.33469009
H       11.81926863       8.35222958      11.49821720       0.00805875      -0.46280606      -0.46045090      -0.20374666      -1.74311829      -1.27393222
H       11.91694309       8.14129741       0.77111930       0.41334718       0.13339888       0.05323356      -0.93052006       2.81935406      -4.65314388
O       10.03327765       1.71606012       2.55466859       0.05824539      -0.50410055      -1.18731738      -0.89151895       3.13678265       2.71446300
H       10.09002450       2.28301356       3.44217916      -0.04716878       0.22959345       0.09574260      -0.30031291      -2.02178764      -3.12879300
H       10.86059267       1.26451049       2.54846041      -0.06505713      -0.10587250       0.14806868       1.13896179      -0.62837774      -0.38596237
O       10.44354124       3.40360913       0.13147432      -0.42056608       1.39639662      -0.07311844       0.36892629       0.51087254       5.13724566
H       10.20686988       2.51933127       0.61832288       0.48543290       0.48674964      -0.23753654       0.64667714       2.39996505      -0.62551588
H       10.63908077       4.05545377       0.96064287       0.05115413       0.09201857      -0.00584211      -0.90061581      -2.62593603      -3.39904857
O        2.26784671       9.05556772      10.44942021       0.67922277      -1.58931988       0.61465172      -2.64853573       3.11743808       3.66527939
H        1.77265726       8.90068640      11.32885752      -0.00715029       0.01185175      -0.35102321       1.06120276       0.63327348      -2.41695690
H        2.71830841       8.27737036      10.30494697       0.45153019       0.07464067       0.27884159       1.56015122      -3.13041377      -1.05496037
O       10.44054681       6.57171305       3.72276704       0.30109787      -0.43583618      -1.64789118      -1.26750934      -2.13063765       3.47384071
H       10.79318513       6.39837478       4.70739003       0.01891951      -0.01872100      -0.29086685      -0.58929306       1.16950321      -2.61872935
H       11.09310178       7.01952265       3.24802457       0.17514014      -0.13804490      -0.06184322       1.62455583       1.04273820      -0.75736910
O       12.18623787       9.33564136       4.85103681       0.13583275      -0.83037980       0.99973660       2.61384153      -1.03771651       0.70753241
H        0.37046010       9.69658771       4.19360909      -0.01519099       0.03108174      -0.19787252       0.39752334      -0.03450650      -0.23270082
H       11.34688440       9.66727227       4.75916418       0.26478288      -0.04816838       0.62904443      -3.04377890       0.79141700      -0.48841739
O       12.20069434      11.47942791      11.01418175       0.68424424       0.66999221       1.18068841       3.44107223       4.31026936       2.23687744
H       11.32665532      11.41935483      10.72046210      -0.00168930      -0.14956727       0.22140982      -3.23768544      -1.73525012      -0.77835065
H       12.13902539       0.05946928      11.29494853      -0.33942724       0.01874234       0.03353794       0.58152676      -2.20061445      -0.63931352
O        7.69666925      12.23602432       9.79068804      -1.97873165       3.48097189       0.62041554       2.86346269       1.18369484      -1.73682833
H        7.04317204       0.16868002      10.34681652       0.05005232       0.33298356       0.00903041      -2.36655641       0.76040512       1.84881234
H        8.41949062       0.52242468       9.98541214      -0.06645043       0.09516532       0.21764493      -1.43633044      -1.51333547      -0.30570495
O        8.58484841       9.04054858       3.43735212       1.41937773       1.01941222       2.56641854       1.01349318       0.30944294       6.51548576
H        8.73531288       9.42377065       4.48024755       0.00969486      -0.19514742      -0.40393919      -0.71424437       0.03456348      -4.07611418
H        8.85561195       8.19454066       3.85269205       0.14526411       0.28466905      -0.35596329       0.12091756      -0.64871979      -1.73493528
O        4.91783496       9.85122103       1.62344130      -0.20521135      -1.06524206       0.47780511      -3.63826799       2.30408454       1.10637879
H        5.63407558       9.96119406       1.08092563       0.38813381      -0.28755899      -0.30069519       3.60727835      -0.41680411      -2.26331258
H        4.47122567      10.69561595       1.35923714      -0.26379524      -0.35820568       0.26256011       0.21636140      -1.35636270       0.95917463
O        5.53371493       9.86580281       6.11205635      -2.43104268       1.47111229      -1.09482094       1.27249146      -1.52547050       0.01728544
H        5.84779946      10.72509936       5.83141055      -0.20575197       0.15507514       0.19210343       0.09109598       0.30224007      -0.15476869
H        6.10706608       9.19910936       5.53486223       0.45203436      -0.24539296      -0.05896510      -1.76481533       0.87393451       0.27327347
O        9.55881226       6.57980629      11.24077516      -0.56539633       0.83819867      -0.65740993      -3.30312514      -0.72124738       0.37478203
H        8.84022397       6.87429734      10.62997620      -0.22717371       0.29535260      -0.43732841       1.42111874      -0.30259696       0.57420838
H        9.00815938       6.22505194      11.99703220       0.44648960       0.64693271       0.01996283       0.93321931       0.79122055      -0.70986897
O        7.77976935       2.59726327       8.90552152      -0.86793097      -1.57832928      -0.55631615      -1.81492734       0.80794191       0.92005265
H        6.74550205       2.62430365       9.02606296       0.12062761      -0.15422585      -0.15529565       2.75660229       0.11683875      -0.06437805
H        8.19922751       3.50477190       9.00551574       0.33204921       0.27468944      -0.28712025      -1.17530346      -1.14495671      -0.80873114
O        1.08065930      10.59438149       8.34913966      -1.45448957       1.75305696      -0.41636171       1.15924811      -1.55687582       0.60381246
H        0.56051756      11.36522818       8.17505407      -0.18035972       0.12694490      -0.17149570      -0.49475044       1.12868047       0.13670707
H        1.18503704      10.42712781       9.30049279       0.22406243      -0.30713152       0.42919491      -0.32546061       0.12592153      -0.59276628
O       11.35347295       6.67947344       6.25178370       2.50823224       2.19875842       1.61985771       0.51851183      -0.27138126       1.45536423
H       11.45986793       7.48702841       6.92382517      -0.15635240      -0.43437202      -0.01871489       0.95159954      -2.56625485      -1.47642446
H       11.93160706       5.92143778       6.56518628      -0.10700932       0.15831380       0.17046779      -1.30857587       2.05352306      -0.22717375
O        6.87875348      10.55062920      11.96146656       1.13338806      -1.81712087       2.09018709       2.46904087       0.14496902      -0.88378978
H        7.22834823      10.60095712      11.02703858       0.33723519      -0.29003156      -0.04813522      -0.76986706      -0.11669561       1.86244249
H        7.75778840      10.42609730       0.04702600      -0.41332564      -0.19683457      -0.80006709      -0.47870421      -0.49287096       0.40484458
O        0.87508046       3.16371007      11.86983045       1.97702555       0.50979759      -0.51001015      -0.34687215       0.72645676       1.56154978
H        0.06544039       3.33888596      11.43744023       0.28261551       0.54555467      -0.14866406      -1.54479504       0.52441084      -0.26279306
H        1.40243738       2.79306675      11.21721599       0.17788448       0.24907104       0.09717972       1.87514675      -1.03603125      -1.65283465
O        0.19267384       7.85346672       8.04641596       0.35227755      -2.64244160      -3.02752415       1.64100254       2.63382864      -1.30004823
H        0.72716677       8.70224856       7.74823868       0.68149893       0.09550213      -0.10138496      -1.81184876      -2.39017415       1.04037225
H       12.30136631       8.09421727       8.92189226      -0.25186609      -0.39686213      -0.19316070      -0.00553218       0.03353864       0.34984553
O        3.56196886       4.77247730       0.15759427      -0.84431014       1.78962837      -1.91640954      -2.84082603      -0.53608650       0.09878659
H        3.41336128       4.20753000      11.78181727       0.24493954       0.14947042      -0.20100193       1.04759145       0.30650431       0.14315271
H        2.60253920       4.71630190       0.42516883       0.67557946      -0.20655298      -0.35874657       1.74245381       0.49815089       0.18584687
O        4.88098751      10.86856544      10.40311961       1.16741920      -0.13271315      -1.64575668      -2.48660421       0.62556958       0.06607711
H        4.14071385      10.25838731      10.28522060       0.16133422      -0.04297203      -0.48376080      -0.04248357       0.35616136       0.25687635
H        5.53736750      10.43913418       9.91098601       0.01864543      -0.19991035      -0.11260173       1.59487796      -0.56956178      -0.94209069
O        3.56095262       3.51027672       3.70479875       1.21629258      -1.59477328      -0.98765914       0.79728991      -2.12869024      -4.19175100
H        3.87585515       2.58174948       3.92105071      -0.54197279      -0.42467591      -0.12812658      -1.15329778       1.95678234      -0.14873841
H        3.34025690       3.41856663       2.65369350      -0.19627729       0.58718596       0.92280803       0.41060203       0.36700243       3.90518022
O        6.25923718       2.55620237       2.93620293      -0.74035890      -2.49114431      -0.40159553      -2.41753817       1.17466676      -0.65983093
H        5.30471169       2.98041583       2.89147388      -0.16095906      -0.18506342      -0.18471614       3.36393404      -0.81708163       0.03958133