18
Properties=species:S:1:pos:R:3:hirsh_ratios:R:1:forces:R:3 dipole_total=0.453289532378217 total_charge=0 energy=-78.81345690786111 dipole="-0.0690010503916185 0.150022584157052 0.422141539594668" pbc="F F F"
C        0.26384000      -0.31619000       4.53224000       0.76281455       0.01953360      -0.54820229       0.11218394
C        0.40649000       0.38620000       3.19979000       0.82392638      -0.10173782       0.89103762       0.31732223
O        0.59278000      -0.20531000       2.14549000       0.92558346      -0.09025566      -0.24339007       0.75261611
N        0.31100000       1.74828000       3.25893000       0.83876199      -0.13979698      -0.81648328       1.36492189
H        0.35503000      -1.40472000       4.37930000       0.60849942      -0.04171990       0.51673307       0.06142207
H       -0.71973000      -0.10570000       4.98488000       0.58856270       0.37188754      -0.01058904      -0.15054521
H        1.05068000       0.00760000       5.23414000       0.58856011      -0.31203546      -0.05445661      -0.24701397
H        0.15516000       2.24017000       4.14227000       0.58870638       0.13550750      -0.58362362      -0.69720772
H        0.39982000       2.27712000       2.38774000       0.76207492      -0.01767064       0.09091899       0.08324896
C       -0.58704000       1.45709000      -0.00988000       0.79612761      -0.68035188      -0.24862396      -0.16568523
S        0.63895000       2.66855000       0.51074000       0.89714931       0.19555533      -0.14004012      -1.32338169
C        2.10250000       1.62948000       0.36893000       0.79611873       0.72512523      -0.15830751       0.03207131
H       -1.57823000       1.94016000       0.01840000       0.61007453       0.41852153      -0.07924839      -0.07265042
H       -0.60213000       0.58343000       0.66325000       0.70356257       0.16094653       0.48921675      -0.25969196
H       -0.39603000       1.10591000      -1.03788000       0.61601276       0.00797242       0.28231589       0.34948804
H        2.04109000       0.75285000       1.03553000       0.70355286      -0.14327471       0.46957097      -0.30247109
H        2.24719000       1.27533000      -0.66560000       0.61601317      -0.13915888       0.27290457       0.32895717
H        2.97907000       2.23227000       0.66027000       0.61005835      -0.36904774      -0.12973296      -0.18358444
17
Properties=species:S:1:pos:R:3:hirsh_ratios:R:1:forces:R:3 dipole_total=0.801117676707797 total_charge=0 energy=-75.21236821806997 dipole="-0.0944653375747127 0.792660288883565 0.0674944320490047" pbc="F F F"
C        1.13688000       0.90813000      -0.55893000       0.74980234       0.03720442      -0.05227428      -0.02404798
H        1.72527000       1.83395000      -0.64053000       0.61931200      -0.21017665      -0.30750577       0.02108349
H        1.71417000       0.15458000      -0.00314000       0.66281287      -0.21027726       0.27221932      -0.19088839
H        0.91076000       0.52744000      -1.56588000       0.57354623       0.05585619       0.15139772       0.34919025
H        0.19734000       1.11653000      -0.02618000       0.59770583       0.30608163      -0.06725047      -0.19085689
C        4.38602000       1.87466000       1.28436000       0.76400635       0.11785460       0.20026079      -0.07952891
N        3.19704000       1.98540000       2.10671000       0.83751054      -0.24688395       0.34949807       0.19140649
C        2.56763000       0.87410000       2.57980000       0.83295814       0.39145615      -0.45963048      -0.20969200
O        2.98113000      -0.25408000       2.32898000       0.96287619      -0.35952460       0.93377520       0.21573916
C        1.33951000       1.14026000       3.42432000       0.76452825      -0.26512561      -0.22068142       0.19042886
H        4.73068000       2.88649000       1.01230000       0.56623174      -0.17497248      -0.42109898       0.13457643
H        4.17470000       1.31410000       0.35823000       0.63179420       0.08235217       0.15457394       0.36761763
H        5.19638000       1.36156000       1.82902000       0.61083684      -0.32284748       0.13536221      -0.22305700
H        2.82146000       2.90848000       2.33780000       0.58627383       0.34735017      -0.82748848      -0.22494468
H        0.57370000       1.68581000       2.84768000       0.60275921       0.29664563      -0.14256820       0.19800996
H        0.91368000       0.17671000       3.75120000       0.60730966       0.24401518       0.46073883      -0.18472928
H        1.59538000       1.73324000       4.31847000       0.58676311      -0.08900810      -0.15932798      -0.34030713
21
Properties=species:S:1:pos:R:3:hirsh_ratios:R:1:forces:R:3 dipole_total=0.45748139458057 total_charge=0 energy=-111.92064084217418 dipole="-0.305143766874628 0.0470639779311093 -0.337581826978653" pbc="F F F"
C        0.49114000       2.19705000       2.75732000       0.79680267      -0.45930217       0.22726123       0.02373916
C        1.75981000       1.40439000       2.84790000       0.84095488       0.27132060       0.44262203       0.01935869
F        2.33085000       1.56674000       4.08160000       0.93732421      -0.07278381      -0.13784553      -0.16604741
F        1.49326000       0.06898000       2.70610000       0.92223775       0.13228506       0.07082098       0.35262712
H       -0.21404000       1.87199000       3.54069000       0.62363751       0.32777799       0.07997195      -0.23572104
H        0.01488000       2.05203000       1.77307000       0.75038880       0.27732274       0.12421140       0.64308670
H        0.69716000       3.27205000       2.89350000       0.61385164       0.01227496      -0.45795009      -0.04141471
H        2.52388000       1.67286000       2.09028000       0.71714833      -0.43236323      -0.15433404       0.59559123
O        2.87802000       0.37757000       0.26249000       0.88191052      -0.82054686      -1.11662710       0.01213719
C        1.64601000       0.92525000       0.00770000       0.85273321       0.21745897      -0.15851095      -0.45856058
C        1.61259000       2.26762000      -0.37122000       0.82371454       0.09542282       0.10719482      -0.08682867
C        0.39012000       2.87720000      -0.64256000       0.81513040       0.02208573       0.08566050      -0.08505700
C       -0.80120000       2.15716000      -0.53874000       0.81683199      -0.16135718       0.13232832      -0.09405139
C       -0.76055000       0.81646000      -0.15970000       0.81610540       0.03713222      -0.16800182      -0.09966028
C        0.45966000       0.19812000       0.11392000       0.83117893      -0.11048995      -0.17706735      -0.26412131
H        2.75132000      -0.56858000       0.51721000       0.61522812       0.19348903       1.32778394      -0.26554331
H        2.55776000       2.82103000      -0.44858000       0.62038031      -0.46705380      -0.26374298       0.02680012
H        0.37034000       3.93388000      -0.94030000       0.59658834       0.00552958      -0.51149722       0.14645804
H       -1.76248000       2.64226000      -0.75372000       0.60206762       0.49047736      -0.24068855       0.11536660
H       -1.68951000       0.23745000      -0.07383000       0.59620330       0.45620925       0.28132953      -0.03381172
H        0.48994000      -0.85810000       0.41239000       0.63404010      -0.01488931       0.50708092      -0.10434744
26
Properties=species:S:1:pos:R:3:hirsh_ratios:R:1:forces:R:3 dipole_total=0.119789963029162 total_charge=0 energy=-116.22104398250667 dipole="-0.0929628568021911 0.0230291215273954 0.0719527765925663" pbc="F F F"
C        2.23851000       0.73107000      -1.60160000       0.80518318      -0.19048988      -0.16569270      -0.16489770
C        3.10350000       1.89726000      -2.08226000       0.80322811      -0.04774041       0.06779022      -0.15476951
C        3.28681000       2.92200000      -0.96175000       0.80508214       0.03225594       0.29946922      -0.03008493
C        3.82088000       2.24328000       0.29443000       0.80983651      -0.31433523       0.09228501       0.24826235
N        2.89538000       1.18393000       0.70125000       0.88041119       0.58547860      -0.35748718       0.26313571
C        2.81359000       0.13806000      -0.32038000       0.80986275      -0.32503388       0.07110786       0.24138894
H        2.17136000      -0.05231000      -2.38086000       0.60753465       0.01369918       0.33294924       0.30780091
H        1.21154000       1.08865000      -1.39445000       0.64423536       0.39091676      -0.14322467      -0.09514784
H        4.09692000       1.50814000      -2.37746000       0.64026152      -0.33509919       0.15172827       0.02921789
H        2.65059000       2.37403000      -2.97277000       0.60500103       0.25011076      -0.22089363       0.34620904
H        2.31321000       3.39113000      -0.72203000       0.64422196       0.37918347      -0.16777460      -0.10237206
H        3.97918000       3.72600000      -1.27744000       0.60753257      -0.29926482      -0.32071443       0.11703123
H        3.90818000       2.97166000       1.12346000       0.62488685      -0.02136880      -0.31202543      -0.35558866
H        4.83389000       1.84940000       0.08439000       0.64978456      -0.08282367       0.04782288       0.04449616
H        3.21523000       0.77215000       1.58721000       0.72095241      -0.21659761       0.26360992      -0.54655964
H        2.16382000      -0.67403000       0.05876000       0.62472129       0.28873753       0.33615975      -0.16615552
H        3.80513000      -0.30068000      -0.54352000       0.64980523      -0.09807818       0.01542559       0.03501961
C        1.66631000      -0.37497000       3.50165000       0.76728133       0.09700369      -0.34755789      -0.09950908
O        2.88179000       0.30983000       3.73037000       0.89825511      -0.53853379       0.25577987       0.00154852
C        2.63370000       1.65495000       4.08782000       0.76733656       0.33621620       0.15669339       0.04672736
H        1.91321000      -1.41440000       3.22735000       0.58465908      -0.05497459       0.42088710       0.13021310
H        1.09265000       0.07981000       2.67660000       0.64613280       0.15947122      -0.02071164       0.16214017
H        1.03246000      -0.39038000       4.40421000       0.59932682       0.16614083       0.04025802      -0.14011449
H        2.10139000       2.19649000       3.28783000       0.64647219       0.08556464      -0.17669267       0.11692828
H        2.04120000       1.72630000       5.01543000       0.59938864       0.10879358      -0.08044602      -0.17457480
H        3.60861000       2.14313000       4.25465000       0.58483153      -0.36923237      -0.23874548      -0.06034503
23
Properties=species:S:1:pos:R:3:hirsh_ratios:R:1:forces:R:3 dipole_total=0.59532628040591 total_charge=0 energy=-105.41833120160845 dipole="-0.00663359098163515 0.266626508199883 0.532240247198352" pbc="F F F"
C        1.48101000      -0.50223000       2.89103000       0.80103870      -0.49935945      -0.15317945      -0.01963252
C        2.53675000      -1.56620000       2.51749000       0.79212597      -0.03052248      -0.23442316       0.04451657
C        3.78089000      -0.73502000       2.11328000       0.79212779       0.22929194      -0.06060235      -0.03951412
C        3.32611000       0.73042000       2.29164000       0.80106365       0.26749241       0.36031708      -0.26976247
N        2.21453000       0.71858000       3.25258000       0.85378593       0.33992675      -0.35352031       0.32400100
H        0.80811000      -0.81308000       3.71324000       0.59908527       0.36032494       0.14791761      -0.37087754
H        0.85115000      -0.26476000       2.01220000       0.69280796       0.31388344      -0.07961792       0.36334388
H        2.76281000      -2.20522000       3.39270000       0.60990949      -0.09689202       0.24704826      -0.43290486
H        2.18648000      -2.22600000       1.70053000       0.59993723       0.16090511       0.33002808       0.43545206
H        4.10802000      -0.94221000       1.07621000       0.59994204      -0.14834087       0.12357021       0.53603581
H        4.63227000      -0.95632000       2.78531000       0.60993540      -0.36594849       0.06708865      -0.34552375
H        2.93561000       1.12782000       1.33507000       0.69297544       0.13002359      -0.20242536       0.42349330
H        4.13232000       1.40769000       2.63338000       0.59907109      -0.38675992      -0.35124215      -0.12800393
H        2.60722000       0.58839000       4.19366000       0.60368435      -0.25860505       0.13608375      -0.51558175
C       -0.65950000       3.48946000       0.09082000       0.76500688      -0.18147995       0.02446952      -0.51398960
C        0.23337000       2.49538000       0.80055000       0.82841565       0.18697914       0.03498629       0.65419856
O        0.71338000       1.51303000       0.25218000       0.94785213      -0.27575666       0.47876282       0.13847774
N        0.46876000       2.77726000       2.11699000       0.83432630      -0.42180792       0.43888530      -0.39365624
H       -0.78780000       3.17583000      -0.95885000       0.61209123       0.07325795       0.13567061       0.50905929
H       -0.21413000       4.49845000       0.10460000       0.59099413      -0.17327342      -0.35154257       0.05942877
H       -1.65291000       3.53684000       0.56777000       0.59097155       0.37789811       0.01691737      -0.11793693
H        0.06586000       3.59968000       2.57286000       0.58717170       0.34028533      -0.75015572      -0.50017750
H        1.06628000       2.13919000       2.64838000       0.73214401       0.05847753      -0.00503653       0.15955423
29
Properties=species:S:1:pos:R:3:hirsh_ratios:R:1:forces:R:3 dipole_total=0.294285369196041 total_charge=0 energy=-165.84051111777808 dipole="-0.218519721132753 0.127022834174432 0.150725610289721" pbc="F F F"
O        1.73623000       1.43969000      -0.91936000       0.89287572       0.54393158      -0.78104705       0.79643750
C        0.70730000       0.86581000      -0.21603000       0.85788158       0.01149095      -0.13395119      -0.47863089
C       -0.58394000       1.05511000      -0.70948000       0.83176266       0.02937846       0.16101303      -0.12921749
C       -1.66785000       0.49588000      -0.03714000       0.82642526      -0.14682438      -0.01316411       0.06327425
C       -1.47358000      -0.25190000       1.12543000       0.83157400      -0.16999148      -0.07379785      -0.05691931
C       -0.18094000      -0.43709000       1.61287000       0.84098088       0.09413464      -0.20174193      -0.17732952
C        0.91037000       0.11958000       0.94558000       0.85243676       0.00851858      -0.45583679      -0.13307445
H        2.58443000       1.22596000      -0.45999000       0.67637840      -1.13952637       0.34952374      -0.51386011
H       -0.72108000       1.64563000      -1.62495000       0.63458355       0.06272264      -0.30780026       0.43104195
H       -2.68159000       0.64838000      -0.43041000       0.61227217       0.47051634      -0.08773223       0.17776600
H       -2.33139000      -0.69077000       1.65191000       0.62015073       0.41930481       0.21413558      -0.26360997
H       -0.01276000      -1.02290000       2.52618000       0.65127831      -0.07855524       0.31404788      -0.49826130
H        1.92801000      -0.02724000       1.33089000       0.72086776      -0.46088334       0.04609990      -0.21576959
C        3.49134000       2.51447000       1.64971000       0.82733030       0.05450885       0.01522264      -0.06457008
C        3.84468000       1.68206000       2.73311000       0.82749724       0.16908236      -0.13538089      -0.00938712
C        2.89094000       1.21470000       3.62433000       0.82515200      -0.06049849      -0.02681383       0.06402350
C        1.54624000       1.58335000       3.43632000       0.86517966       0.18698780       0.27356482       0.09125212
C        1.21433000       2.42368000       2.33653000       0.86524935      -0.00581757       0.23506959       0.26468944
C        2.17428000       2.89657000       1.43600000       0.83638701       0.01241809       0.40240349       0.25018026
N       -0.14398000       2.62995000       2.38012000       0.84858216      -0.24303736       0.37908307      -0.08592298
H       -0.67794000       3.19577000       1.71584000       0.60433039       0.48928453      -0.60983395       0.54816886
C       -0.67786000       1.95756000       3.45645000       0.82016419       0.41775466       0.03044406       0.01913313
C        0.32882000       1.30288000       4.12955000       0.83109495      -0.33637283       0.23289756       0.05195511
H        4.27270000       2.86632000       0.96321000       0.61458635      -0.34843712      -0.13126588       0.34084737
H        4.89757000       1.40165000       2.86873000       0.61781745      -0.50411822       0.13960714      -0.06258419
H        3.17925000       0.56758000       4.46321000       0.61408979      -0.13505026       0.31162217      -0.39076173
H        1.90087000       3.54429000       0.59261000       0.65138883       0.13095575      -0.34910770       0.46025313
H       -1.74784000       1.99959000       3.66013000       0.60185021       0.45902372      -0.04547229      -0.10638105
H        0.20051000       0.69043000       5.02204000       0.61375609       0.06909892       0.24821127      -0.37274280
13
Properties=species:S:1:pos:R:3:hirsh_ratios:R:1:forces:R:3 dipole_total=0.1249929635242 total_charge=0 energy=-49.7870037819157 dipole="0.0388577509324257 0.112994790695876 -0.0366809677984476" pbc="F F F"
C        0.32274000       1.36535000       2.81524000       0.79088643      -0.22131126       0.35417036       0.26111726
S        0.84577000       0.02896000       1.72793000       0.91542387       0.17398843       0.21581338       0.17265769
C        2.62508000       0.26602000       1.86785000       0.79087944       0.49131235       0.01367018      -0.03199005
H       -0.77977000       1.36748000       2.84813000       0.60338927       0.44440903      -0.05377603      -0.02337162
H        0.66550000       2.34560000       2.44343000       0.66436554      -0.08545389      -0.40018856       0.03062322
H        0.70502000       1.22460000       3.84025000       0.61475412      -0.14585254      -0.05167921      -0.37718806
H        2.92819000       1.26520000       1.51236000       0.66435492      -0.21856376      -0.33652093       0.08537183
H        2.96771000       0.14420000       2.90918000       0.61473559      -0.19459903      -0.02835481      -0.35723469
H        3.12144000      -0.49529000       1.24283000       0.60339316      -0.24216047       0.27415934       0.25913514
N        1.43738000       2.90049000      -0.16642000       0.84966513      -0.20856315      -0.03261338      -0.46944430
H        2.04034000       2.83700000      -0.99288000       0.59427509      -0.37667072       0.05303134       0.43876012
H        0.64717000       3.50223000      -0.41960000       0.59427725       0.45700308      -0.34506914       0.09564605
H        1.05726000       1.96286000      -0.00217000       0.72812214       0.12646191       0.33735747      -0.08408259
16
Properties=species:S:1:pos:R:3:hirsh_ratios:R:1:forces:R:3 dipole_total=2.58472033881813 total_charge=-1 energy=-81.24957787566382 dipole="-1.33062347259795 -0.588472838737899 -2.13633333591442" pbc="F F F"
C       -0.17875000       0.25894000       2.06033000       0.81297211       0.06325730      -0.03280167       0.11394062
N        1.13960000       0.32312000       2.66034000       0.87680745      -1.91038650      -1.32427061       2.06859614
C        1.35973000      -0.15123000       3.91793000       0.86516234      -0.86400540       0.55281159      -1.81285446
O        0.45624000      -0.64701000       4.58471000       1.03057132       0.11950361      -0.24767217       0.65931357
C        2.78346000      -0.01899000       4.41576000       0.80048545       0.31924374      -0.11371977       0.45426865
H       -0.13459000       0.69391000       1.04767000       0.72774028       0.22585682      -0.17294857       0.54174542
H       -0.91184000       0.82832000       2.65613000       0.67828037       0.08938853      -0.27598930      -0.06897283
H       -0.52555000      -0.78503000       1.97998000       0.67826933      -0.03736980       0.25338914       0.15284964
H        1.91872000       0.72927000       2.13637000       0.82199337       0.53629947       0.17328981      -0.10709277
H        3.09582000       1.03848000       4.44422000       0.66158086      -0.07149851      -0.42264956      -0.17346301
H        2.84592000      -0.43187000       5.43666000       0.66856355      -0.10569513       0.14474426      -0.40590034
H        3.48210000      -0.57489000       3.76808000       0.66156323      -0.25714799       0.35297562       0.15160359
O        1.48801000       1.54318000      -0.05173000       1.01933512       1.52515721       0.07946371       0.68167770
C        2.64489000       1.61337000       0.44174000       0.88669142      -0.81493034       0.20366049      -0.95129506
O        3.06896000       1.24268000       1.56850000       0.96646920       1.04098473       0.79001581      -1.29036953
H        3.41409000       2.07614000      -0.22298000       0.76873096       0.14134226       0.03970121      -0.01404731
18
Properties=species:S:1:pos:R:3:hirsh_ratios:R:1:forces:R:3 dipole_total=0.615537297529552 total_charge=0 energy=-81.92632559850608 dipole="0.345981413805754 0.428522753600313 0.274865922947464" pbc="F F F"
C        2.57695000       3.56180000       2.82085000       0.76956383      -0.34470848       0.14801596       0.19428220
C        2.78523000       2.07816000       2.62211000       0.82539799      -0.45327328      -0.45569439       0.18524029
O        1.96103000       1.25627000       2.98816000       0.93017940       0.72989169       0.73142157      -0.32239352
C        4.07300000       1.67101000       1.94393000       0.76950965       0.09846236      -0.39817210      -0.06278656
H        1.60985000       3.75178000       3.31606000       0.61277938       0.42107901      -0.15293898      -0.21591012
H        2.58275000       4.08282000       1.84868000       0.63282294       0.12207673      -0.19245033       0.32742375
H        3.38180000       3.97964000       3.44874000       0.58252766      -0.19116671      -0.11976005      -0.30402974
H        4.12840000       2.11101000       0.93400000       0.63768061       0.00743551      -0.04352140       0.39599973
H        4.94063000       2.02094000       2.52821000       0.58251783      -0.28811011      -0.00459272      -0.24514041
H        4.12974000       0.57323000       1.85300000       0.61094199      -0.08548725       0.48431197       0.07169668
C       -0.91572000       1.22116000       1.17679000       0.79790533      -0.30986362       0.21815463       0.16906269
C        0.26679000       0.71914000       0.38490000       0.87826724       0.23539751      -0.41223607       0.53807976
Cl      -0.25741000      -0.44737000      -0.85400000       0.96800639       0.04046497       0.05761956       0.01787406
Cl       1.13347000       2.07547000      -0.37641000       0.94515848       0.00215269      -0.00396656      -0.04233970
H       -1.43330000       0.37755000       1.66365000       0.62021284       0.26280126       0.28516789      -0.21332919
H       -1.63213000       1.74075000       0.51846000       0.65515893       0.30560680      -0.23795275       0.21370028
H       -0.58003000       1.92526000       1.95664000       0.65981796      -0.03154193      -0.33981501      -0.30885310
H        1.00857000       0.19044000       1.01745000       0.73402141      -0.52121712       0.43640877      -0.39857709
22
Properties=species:S:1:pos:R:3:hirsh_ratios:R:1:forces:R:3 dipole_total=0.0659892594677168 total_charge=0 energy=-104.22937643263867 dipole="0.0574557905466489 -0.00340662110363813 0.0322770728290765" pbc="F F F"
C        2.44364000       1.89194000       1.78840000       0.80949826      -0.09342477       0.61153837       1.16160547
C        2.21425000       2.48274000       2.82231000       0.80790468       0.37354314      -0.63954199      -1.03837844
H        2.64735000       1.36725000       0.87018000       0.58480609      -0.10251646       0.24501844       0.42386871
H        2.01054000       3.00742000       3.74053000       0.57972365       0.09693891      -0.24710983      -0.43035489
C       -0.75797000       1.94644000      -0.27719000       0.80744426       0.03938689      -0.05438607      -0.07847369
C       -0.21398000       3.35847000      -0.05009000       0.81133345       0.12924702       0.09346259      -0.14852662
C       -1.12169000       4.15022000       0.89357000       0.80534523       0.03759837       0.14478255       0.00403892
C       -1.30650000       3.41392000       2.22212000       0.80864849      -0.05190293       0.09717934       0.15544015
C       -1.85049000       2.00190000       1.99502000       0.80546984      -0.03917410      -0.08155612       0.11785358
C       -0.94278000       1.21015000       1.05135000       0.81160497       0.02526866      -0.21887726       0.01125083
H       -0.07631000       1.37662000      -0.93756000       0.61663939      -0.32871019       0.21631783       0.20433184
H       -1.73824000       2.01787000      -0.78651000       0.63743513       0.34772712      -0.07577372       0.08055275
H        0.79457000       3.28559000       0.40043000       0.70451145      -0.41145900       0.10487944      -0.24365502
H       -0.11332000       3.88859000      -1.01667000       0.61212819       0.00066807      -0.20711313       0.39784528
H       -2.11138000       4.27871000       0.41457000       0.63676864       0.31771375       0.04714623       0.16085317
H       -0.70047000       5.15837000       1.07150000       0.61210443      -0.23063142      -0.38880358      -0.10545051
H       -1.98813000       3.98375000       2.88252000       0.61063877       0.31674164      -0.22552818      -0.23086756
H       -0.32621000       3.34248000       2.73140000       0.68279488      -0.41616640       0.06316602      -0.15582121
H       -2.85906000       2.07476000       1.54454000       0.63687319       0.28161540      -0.05772589       0.21558748
H       -1.95111000       1.47179000       2.96161000       0.61241542      -0.02733106       0.21024602      -0.41226602
H       -1.36397000       0.20199000       0.87344000       0.61231766       0.20144299       0.38943986       0.09128154
H        0.04692000       1.08171000       1.53036000       0.70654387      -0.46657562      -0.02676093      -0.18071575
24
Properties=species:S:1:pos:R:3:hirsh_ratios:R:1:forces:R:3 dipole_total=2.13693992398433 total_charge=1 energy=-101.34261263669032 dipole="1.19682095227673 -0.0166717650851204 1.77026944253086" pbc="F F F"
C        3.18852000       3.33378000       1.04669000       0.77260304       0.50220462       0.68837202      -0.83297826
O        2.58400000       2.50279000       2.02234000       0.86825694      -0.08168560       0.04254663       0.07524298
C        2.83421000       3.11926000       3.28438000       0.76938567      -0.21166371      -0.02893829       0.94159868
C        4.16925000       3.79032000       3.04894000       0.76942274       0.43246546       0.34631491       0.14140427
O        4.03525000       4.25791000       1.70775000       0.89208160      -0.58186854      -0.85645436       0.12333884
H        2.43838000       3.90246000       0.46416000       0.57376325       0.17802597      -0.14345640       0.39687521
H        3.74778000       2.69171000       0.33929000       0.58321473      -0.05607467       0.12850235       0.37831940
H        2.83298000       2.33532000       4.06597000       0.57185788       0.12228034       0.35760045      -0.44353179
H        2.04344000       3.85057000       3.53995000       0.57389478       0.30261601      -0.22905355      -0.27586000
H        5.01205000       3.07916000       3.14589000       0.57998807      -0.31365430       0.15821986      -0.12232292
H        4.38260000       4.65644000       3.70450000       0.55468786      -0.27564575      -0.44712492      -0.37817107
C       -0.98464000      -1.65824000       0.98954000       0.72224344      -0.10758778      -0.09451853      -0.02871682
N        0.44947000      -1.52827000       1.22679000       0.80596772       0.15476035      -0.62823862      -0.04895461
C        1.06162000      -0.37233000       1.45797000       0.79006256       0.14171532       0.37366795       0.06356302
N        2.38284000      -0.33528000       1.66678000       0.79206193       0.15868858      -0.48273894      -0.02479461
H        2.92753000      -1.20103000       1.64887000       0.51769930      -0.41655466       0.80615263       0.02758985
H        2.84825000       0.55826000       1.84427000       0.64889399      -0.32458338      -0.31248602      -0.08825848
N        0.35520000       0.75984000       1.48231000       0.79599988      -0.46695714      -0.06939786      -0.07504121
H       -1.21374000      -2.72506000       0.82816000       0.51473159       0.10158131       0.57482500       0.08332273
H       -1.29636000      -1.09232000       0.09558000       0.55299811       0.16459641      -0.26466129       0.22758681
H       -1.56846000      -1.29991000       1.85404000       0.55318841       0.23408287      -0.21114015      -0.22202863
H        1.02109000      -2.37658000       1.21510000       0.53139250      -0.49065232       0.68516493       0.00347716
H       -0.65502000       0.73494000       1.32305000       0.56840083       0.91289616       0.07685770       0.14968658